# vtk DataFile Version 2.0
Conversion of 9001000.avt
ASCII
DATASET POLYDATA
POINTS 4 float 
0.5 0.5 0.0
1.5 0.5 0.0
1.5 1.5 0.0
0.5 1.5 0.0
POLYGONS 1 5
4 0 1 2 3
CELL_DATA 1
SCALARS cell_scalars int 1
LOOKUP_TABLE default
0
POINT_DATA 4
SCALARS CP float 1
LOOKUP_TABLE default
0.7071068
0.7071068
0.7071068
0.7071068
